# LAMMPS data file written by OVITO Pro 3.8.3

60 atoms
90 bonds
1 atom types
1 bond types

-20 20 xlo xhi
-20 20 ylo yhi
-20 20 zlo zhi

Masses

1 1.00  # C

Atoms  # hybrid dipole ellipsoid bond

1 1 2.1665000000000001 0.5906 2.58740000000000016 0 0 0 0 0 6.28069301796275604 1
2 1 3.03779999999999984 0.17660000000000002 1.59180000000000008 0 0 0 0 0 6.28069301796275604 1
3 1 1.27859999999999996 -0.30980000000000004 3.16789999999999994 0 0 0 0 0 6.28069301796275604 1
4 1 3.01180000000000003 -1.14339999999999998 1.1654 0 0 0 0 0 6.28069301796275604 1
5 1 3.10340000000000016 -1.4335 -0.193 0 0 0 0 0 6.28069301796275604 1
6 1 3.1503000000000001 1.21059999999999992 0.6682 0 0 0 0 0 6.28069301796275604 1
7 1 3.24279999999999992 0.9149 -0.68589999999999992 0 0 0 0 0 6.28069301796275604 1
8 1 3.21919999999999984 -0.4023 -1.12070000000000004 0 0 0 0 0 6.28069301796275604 1
9 1 -0.4393 1.3527 3.1271 0 0 0 0 0 6.28069301796275604 1
10 1 0.4363 2.26180000000000004 2.55419999999999984 0 0 0 0 0 6.28069301796275604 1
11 1 -0.0296 0.0633 3.4379 0 0 0 0 0 6.28069301796275604 1
12 1 1.7442 1.879 2.28299999999999992 0 0 0 0 0 6.28069301796275604 1
13 1 2.35190000000000012 2.26759999999999984 1.09899999999999998 0 0 0 0 0 6.28069301796275604 1
14 1 -0.2633 3.02680000000000016 1.63260000000000008 0 0 0 0 0 6.28069301796275604 1
15 1 0.3374 3.40540000000000024 0.4373 0 0 0 0 0 6.28069301796275604 1
16 1 1.6516 3.02780000000000005 0.1707 0 0 0 0 0 6.28069301796275604 1
17 1 -2.09030000000000006 -0.8225 2.59549999999999992 0 0 0 0 0 6.28069301796275604 1
18 1 -2.51109999999999992 0.4664 2.28540000000000012 0 0 0 0 0 6.28069301796275604 1
19 1 -0.8449 -1.02519999999999989 3.17379999999999996 0 0 0 0 0 6.28069301796275604 1
20 1 -1.6874 1.55329999999999992 2.55120000000000016 0 0 0 0 0 6.28069301796275604 1
21 1 -1.58430000000000008 2.58579999999999992 1.63189999999999992 0 0 0 0 0 6.28069301796275604 1
22 1 -3.23139999999999984 0.4061 1.10070000000000002 0 0 0 0 0 6.28069301796275604 1
23 1 -3.12270000000000004 1.44100000000000008 0.17460000000000004 0 0 0 0 0 6.28069301796275604 1
24 1 -2.2947000000000002 2.52910000000000016 0.4399 0 0 0 0 0 6.28069301796275604 1
25 1 -0.4908 -2.9133 1.7365 0 0 0 0 0 6.28069301796275604 1
26 1 -1.74300000000000016 -2.71240000000000016 1.16369999999999996 0 0 0 0 0 6.28069301796275604 1
27 1 -0.0393 -2.06840000000000002 2.74529999999999984 0 0 0 0 0 6.28069301796275604 1
28 1 -2.5486 -1.66500000000000008 1.59420000000000008 0 0 0 0 0 6.28069301796275604 1
29 1 -3.2602000000000002 -0.9141 0.6701 0 0 0 0 0 6.28069301796275604 1
30 1 -1.65430000000000008 -3.00609999999999999 -0.1897 0 0 0 0 0 6.28069301796275604 1
31 1 -2.35420000000000008 -2.2439 -1.117 0 0 0 0 0 6.28069301796275604 1
32 1 -3.1642999999999999 -1.19490000000000008 -0.6878 0 0 0 0 0 6.28069301796275604 1
33 1 2.13640000000000008 -2.05529999999999991 1.7358 0 0 0 0 0 6.28069301796275604 1
34 1 1.6895 -2.9009 0.7293 0 0 0 0 0 6.28069301796275604 1
35 1 1.27849999999999996 -1.63660000000000008 2.7435 0 0 0 0 0 6.28069301796275604 1
36 1 0.3678 -3.3327 0.7302 0 0 0 0 0 6.28069301796275604 1
37 1 -0.34399999999999996 -3.39040000000000008 -0.4594 0 0 0 0 0 6.28069301796275604 1
38 1 2.28889999999999992 -2.52499999999999992 -0.464 0 0 0 0 0 6.28069301796275604 1
39 1 1.579 -2.57180000000000008 -1.65799999999999992 0 0 0 0 0 6.28069301796275604 1
40 1 0.256 -3.00539999999999985 -1.6531 0 0 0 0 0 6.28069301796275604 1
41 1 -2.18279999999999984 -0.57830000000000008 -2.59790000000000008 0 0 0 0 0 6.28069301796275604 1
42 1 -1.748 -1.8694 -2.30830000000000004 0 0 0 0 0 6.28069301796275604 1
43 1 -0.4385 -2.24690000000000012 -2.58449999999999984 0 0 0 0 0 6.28069301796275604 1
44 1 -1.28150000000000008 0.31890000000000004 -3.16710000000000004 0 0 0 0 0 6.28069301796275604 1
45 1 -2.15260000000000008 2.0545 -1.7378 0 0 0 0 0 6.28069301796275604 1
46 1 -3.04850000000000021 1.15349999999999998 -1.18110000000000004 0 0 0 0 0 6.28069301796275604 1
47 1 -3.06559999999999989 -0.1629 -1.6107 0 0 0 0 0 6.28069301796275604 1
48 1 -1.2661 1.64070000000000008 -2.72710000000000016 0 0 0 0 0 6.28069301796275604 1
49 1 0.5039 2.93610000000000016 -1.7418 0 0 0 0 0 6.28069301796275604 1
50 1 -0.3788 3.35610000000000008 -0.7513 0 0 0 0 0 6.28069301796275604 1
51 1 -1.69429999999999992 2.91860000000000016 -0.7491 0 0 0 0 0 6.28069301796275604 1
52 1 0.05210000000000001 2.07299999999999996 -2.7355 0 0 0 0 0 6.28069301796275604 1
53 1 2.09759999999999992 0.834 -2.60510000000000016 0 0 0 0 0 6.28069301796275604 1
54 1 2.55169999999999984 1.69229999999999992 -1.6107 0 0 0 0 0 6.28069301796275604 1
55 1 1.75889999999999984 2.74520000000000016 -1.18239999999999992 0 0 0 0 0 6.28069301796275604 1
56 1 0.842 1.02059999999999995 -3.17859999999999988 0 0 0 0 0 6.28069301796275604 1
57 1 0.4461 -1.34949999999999992 -3.16610000000000014 0 0 0 0 0 6.28069301796275604 1
58 1 1.69829999999999992 -1.5485 -2.59080000000000024 0 0 0 0 0 6.28069301796275604 1
59 1 2.51840000000000016 -0.4623 -2.31709999999999996 0 0 0 0 0 6.28069301796275604 1
60 1 0.0218 -0.06450000000000002 -3.45849999999999992 0 0 0 0 0 6.28069301796275604 1

Bonds

1 1 1 2
2 1 1 12
3 1 1 3
4 1 2 4
5 1 2 6
6 1 3 11
7 1 3 35
8 1 4 5
9 1 4 33
10 1 5 8
11 1 5 38
12 1 6 7
13 1 6 13
14 1 7 8
15 1 7 54
16 1 8 59
17 1 9 11
18 1 9 10
19 1 9 20
20 1 10 12
21 1 10 14
22 1 11 19
23 1 12 13
24 1 13 16
25 1 14 15
26 1 14 21
27 1 15 50
28 1 15 16
29 1 16 55
30 1 17 18
31 1 17 19
32 1 17 28
33 1 18 22
34 1 18 20
35 1 19 27
36 1 20 21
37 1 21 24
38 1 22 29
39 1 22 23
40 1 23 24
41 1 23 46
42 1 24 51
43 1 25 36
44 1 25 27
45 1 25 26
46 1 26 30
47 1 26 28
48 1 27 35
49 1 28 29
50 1 29 32
51 1 30 31
52 1 30 37
53 1 31 42
54 1 31 32
55 1 32 47
56 1 33 34
57 1 33 35
58 1 34 38
59 1 34 36
60 1 36 37
61 1 37 40
62 1 38 39
63 1 39 58
64 1 39 40
65 1 40 43
66 1 41 44
67 1 41 47
68 1 41 42
69 1 42 43
70 1 43 57
71 1 44 60
72 1 44 48
73 1 45 48
74 1 45 46
75 1 45 51
76 1 46 47
77 1 48 52
78 1 49 50
79 1 49 55
80 1 49 52
81 1 50 51
82 1 52 56
83 1 53 59
84 1 53 54
85 1 53 56
86 1 54 55
87 1 56 60
88 1 57 60
89 1 57 58
90 1 58 59
